 homemade init
 
        1000 atoms
           1 atom types
 
  0.000000000000000E+000   11.5216810819787      xlo xhi
  0.000000000000000E+000   11.5216810819787      ylo yhi
  0.000000000000000E+000   11.5216810819787      zlo zhi
 
 Masses
 
           1   1.00000000000000     
 
 Atoms # bond
 
           1           0      1   0.6810473988259290E+01   0.2185224219796217E+00   0.8231865649736511E+01
           2           0      1   0.3537737965074105E+01   0.1545985215268454E+01   0.4164921725678787E+01
           3           0      1   0.5701919319147081E+01   0.6827368706504016E+01   0.3534702206905909E+01
           4           0      1   0.1018126174468580E+02   0.1050889793490603E+02   0.6110954036680186E+01
           5           0      1   0.8774219539258905E+01   0.4722063416653861E+01   0.2748969791675457E+01
           6           0      1   0.8806883619642021E+00   0.3863380957750850E+01   0.5315770481868072E+01
           7           0      1   0.3777906267325645E+01   0.4860124548133701E+01   0.7647386386086544E+01
           8           0      1   0.1465571258343705E+01   0.1924249944263285E+01   0.3067772410221608E+01
           9           0      1   0.1052638409709453E+02   0.4476088234670091E+00   0.3260451445134806E+01
          10           0      1   0.4485257773392124E+01   0.6118155562734521E+01   0.8946125193142446E+01
          11           0      1   0.5870123875019819E+00   0.1095568839118955E+02   0.3965218851208593E+01
          12           0      1   0.1836548978768531E+01   0.9384926423570738E+01   0.8370948471347051E+01
          13           0      1   0.2816242654551249E+01   0.4756396656130352E+01   0.1015927666245494E+01
          14           0      1   0.5313498499095793E+00   0.4787605347673606E+01   0.1133521590127318E+02
          15           0      1   0.1254663543017599E+01   0.7064319703957972E+01   0.7864092868547366E+01
          16           0      1   0.1344376903792510E+01   0.7054004854067998E+01   0.5264713570407924E+01
          17           0      1   0.7700288597866749E+01   0.7373353276726474E+01   0.2860667498297247E+01
          18           0      1   0.7420197587543574E+01   0.4676368417084873E+01   0.5983164603493861E+01
          19           0      1   0.5200214044264249E+01   0.7986012133529490E+01   0.1528855011339492E+01
          20           0      1   0.9194960457199128E+01   0.9639978800582373E+00   0.1025989759319899E+02
          21           0      1   0.8539079796976461E+01   0.6154966985563344E+01   0.8733720097893702E+01
          22           0      1   0.7130300496537760E+01   0.4098155831959692E+00   0.1028359741900618E+02
          23           0      1   0.2775082248334435E+01   0.1118010659359323E+02   0.3711057836913581E+01
          24           0      1   0.7377357477683680E+01   0.3512135383677073E+01   0.8764136907689798E+01
          25           0      1   0.6939811108539346E+01   0.5639296676499617E+01   0.6389172386081205E+01
          26           0      1   0.7968153875773094E+01   0.6570342863595151E+01   0.4623449768148686E+01
          27           0      1   0.1070308470998697E+01   0.9203198713330984E+01   0.5458878505642470E+01
          28           0      1   0.8679530787386186E+01   0.3104720972238027E+01   0.2318091335764355E+01
          29           0      1   0.5538030366002171E+01   0.8982724708307744E+01   0.1986529123970712E+01
          30           0      1   0.1991402695021892E+00   0.1036505681156100E+02   0.1047800509407934E+01
          31           0      1   0.9186262356716504E+00   0.2797549424199739E+01   0.3288212836521720E+01
          32           0      1   0.1572719861261082E+01   0.1801063125936369E+01   0.4575837287501753E+00
          33           0      1   0.2724686770868823E+01   0.8738388048655152E+01   0.2974369975231817E+01
          34           0      1   0.2717883787939502E+01   0.2943172227798230E+01   0.1843968862169484E+01
          35           0      1   0.5487250788460632E+01   0.1079325909203249E+02   0.6293462838676769E+01
          36           0      1   0.7816290879398374E+01   0.5925635578354517E+01   0.7940119149611621E+01
          37           0      1   0.6708575448470825E+01   0.5617612257248743E+01   0.8769975192532694E+01
          38           0      1   0.1030314375606205E+02   0.1001893198036066E+02   0.1927473275092943E+00
          39           0      1   0.7953286445937485E+01   0.1075980369948303E+02   0.7807667060633339E+01
          40           0      1   0.3978119023327365E+01   0.2214540228063612E+01   0.8923960809285186E+01
          41           0      1   0.8305941121951397E+01   0.7003350101860004E+01   0.8170398399486512E+01
          42           0      1   0.9472728553725059E+01   0.4017654830274652E+01   0.4366633650682792E+01
          43           0      1   0.8978536660330853E+01   0.5832889340422788E+01   0.4185363392276717E+01
          44           0      1   0.7047989571062034E+01   0.3021375056484688E+01   0.6371488117621149E+01
          45           0      1   0.3031030456007351E+01   0.2156731154886037E+01   0.9444759972313570E+00
          46           0      1   0.5657742226639844E+01   0.3519464748852084E+01   0.8885177605907163E+01
          47           0      1   0.2016184960131722E+01   0.1106170645029039E+01   0.2299849927853920E+01
          48           0      1   0.3189561637122178E+01   0.1354724220324578E+01   0.7619149981782651E+01
          49           0      1   0.2393791087194167E+01   0.2139047567201339E+01   0.8790346474599684E+01
          50           0      1   0.3998047398556478E+01   0.1022193579517250E+02   0.6712662767742848E-01
          51           0      1   0.1720871114096399E+00   0.8382725577034620E+00   0.4855144298416494E+01
          52           0      1   0.4664850968184674E+01   0.7192013665683483E+01   0.3668058544971450E+01
          53           0      1   0.2221310001370916E+01   0.1712997498504414E+00   0.9702206137921452E+01
          54           0      1   0.1048597144637150E+02   0.1064691275122216E+01   0.5405349146922485E+01
          55           0      1   0.3329418007802836E+01   0.8203921990399347E+00   0.1048700691117164E+02
          56           0      1   0.5994972856133021E+01   0.3337065786660130E+01   0.1423094192036265E+01
          57           0      1   0.8613825165868146E+01   0.8852981045098280E+01   0.2835774148734060E+01
          58           0      1   0.1050390599704382E+02   0.5402402860095840E+01   0.7771214945763673E+01
          59           0      1   0.3109963200517264E+01   0.5857176022411207E+01   0.1436775540012035E+01
          60           0      1   0.2616645747709279E+01   0.4613695297890752E+01   0.1084630042781847E+02
          61           0      1   0.4688753574744797E+01   0.1019165689579733E+02   0.5694982141898190E+01
          62           0      1   0.2296710958682455E+01   0.2682314901165234E+01   0.2724755525235622E+01
          63           0      1   0.3855092319180928E+01   0.6772228468410253E+01   0.7207614903282280E+01
          64           0      1   0.8501867601637311E+01   0.8326373566392773E+01   0.2635473442864190E+00
          65           0      1   0.6183409921206865E+01   0.5471769411180469E+01   0.7751538061851545E+01
          66           0      1   0.8754551592739455E+01   0.3724496718615296E+01   0.3199582069398682E+01
          67           0      1   0.7704336872380544E+01   0.1086080600708626E+02   0.6914993995357108E+00
          68           0      1   0.6445557769615725E+01   0.4075901432455697E+01   0.4350929321415309E+01
          69           0      1   0.3733328667657267E+01   0.3840963174173088E+01   0.8566310029766976E+01
          70           0      1   0.2311364920398301E+00   0.4054773544438689E+01   0.9439587205589797E+01
          71           0      1   0.8015415235358880E+01   0.8159014192845545E+01   0.8121304950329401E+01
          72           0      1   0.5737386969290200E+01   0.6354999049037779E+01   0.8495658059076092E+01
          73           0      1   0.9902505911103509E+01   0.6348816213817592E+01   0.8772741534350271E+01
          74           0      1   0.9817511325406931E+01   0.1578132944255393E+01   0.9717368195183186E+01
          75           0      1   0.5342652285378797E+00   0.2890358353963516E+01   0.5253084928101868E+01
          76           0      1   0.1336664886287075E+01   0.4087378109695850E+01   0.6152009444694264E+01
          77           0      1   0.6024948751110366E+00   0.5979082886929397E+01   0.6937965986124464E+01
          78           0      1   0.9396760369095952E+01   0.1155546194318148E+01   0.5643229100286447E+01
          79           0      1   0.1716887163561586E+01   0.7282023213382613E+01   0.9062326583909664E+01
          80           0      1   0.6654174414133541E+01   0.4203293660930437E+01   0.1165993056336692E+01
          81           0      1   0.4664238582300408E+01   0.5392468610738925E+01   0.8067142743096211E+01
          82           0      1   0.7847889446382490E+01   0.1073747530043642E+02   0.1729808792910962E+01
          83           0      1   0.1074918430741609E+02   0.7583770580098045E+01   0.1455806572393696E+01
          84           0      1   0.3291568708154625E+00   0.1068244531322343E+02   0.2893812802115103E+01
          85           0      1   0.5704916613813225E-01   0.7032526595252415E+01   0.1704406116707933E+01
          86           0      1   0.4358560493579922E+01   0.1030752729107169E+02   0.4583148962614419E+01
          87           0      1   0.1004638012112672E+02   0.3138645076226681E+01   0.4947237799576366E+01
          88           0      1   0.6697870852651156E+01   0.1635813333693082E+01   0.1135508812860194E+02
          89           0      1   0.9283173602292285E+01   0.3933730443053007E+01   0.7438324645088021E-01
          90           0      1   0.5169697434873257E+01   0.7665703982319158E+01   0.1045580324849251E+02
          91           0      1   0.6945882623236374E+01   0.1045688680468947E+02   0.8033011678006030E+01
          92           0      1   0.9902551548856659E+01   0.1079239045154734E+02   0.2358543741589315E+01
          93           0      1   0.5154953105503582E+01   0.2812983686742895E+01   0.4087339060659944E+01
          94           0      1   0.1506169475858787E+01   0.3055464129398641E+01   0.8199939097045323E+01
          95           0      1   0.7757966994847181E+01   0.6824543546537329E+01   0.1199952771206417E+01
          96           0      1   0.1927334195573662E+01   0.9437236134292361E+01   0.3242293756754837E+01
          97           0      1   0.8797209116645186E+01   0.7561401768938665E+01   0.1062830653131547E+02
          98           0      1   0.4583479789653186E+00   0.8698906072556017E+01   0.3568485707924653E+01
          99           0      1   0.6631579792635946E+01   0.1143964237286576E+01   0.1391573088849538E+01
         100           0      1   0.1651560666734262E+01   0.1083395430777872E+02   0.1015380202405578E+02
         101           0      1   0.9809514757485244E+01   0.6702098825948951E+01   0.1101570883282059E+02
         102           0      1   0.4181888755410878E+00   0.4780852278232333E+00   0.1109907904923114E+02
         103           0      1   0.2575241512468982E+00   0.5510600213492257E+01   0.1424575413642913E+01
         104           0      1   0.6260824759220041E+01   0.1179099648411561E+01   0.1055170507726765E+02
         105           0      1   0.1030399028926148E+02   0.7220797247467226E+01   0.5020154878148363E+01
         106           0      1   0.4002249919480881E+01   0.1056384481591945E+01   0.8294815955956389E+01
         107           0      1   0.9517922627722941E+01   0.7632669115119363E+00   0.1141878609323876E+02
         108           0      1   0.7147358889197706E+01   0.1428657889222029E+00   0.4097158405398177E+01
         109           0      1   0.3625890890072562E+00   0.6729679040126841E+01   0.1043165230335417E+02
         110           0      1   0.1226392509014175E+01   0.3317228482508617E+01   0.4495098200054993E+01
         111           0      1   0.2042879587926689E+01   0.5707358351287226E+01   0.1105419872072618E+02
         112           0      1   0.9149927796139231E+01   0.6180995375671698E+01   0.1027222792056195E+02
         113           0      1   0.9656648424755637E+01   0.1091900373541378E+02   0.1131705468022159E+02
         114           0      1   0.7875225740937077E+01   0.9631758919192005E+00   0.1150050737795799E+01
         115           0      1   0.1101859778637340E+02   0.2629878417555104E+01   0.8928487035767130E+01
         116           0      1   0.1334396329123809E+01   0.7817675116371429E+00   0.7358984351496607E+01
         117           0      1   0.7193748638718142E+01   0.3270563535987066E+01   0.8820884261248404E+00
         118           0      1   0.6576827706145199E+01   0.3627375778811971E+01   0.1060479199668712E+02
         119           0      1   0.2615687706190303E+01   0.4588423308155648E+00   0.7535411466998413E+01
         120           0      1   0.5555822695189054E+01   0.9417249715922230E+01   0.9330946910826832E+01
         121           0      1   0.1140718616205281E+02   0.7281959012819160E+01   0.3973778040496446E+01
         122           0      1   0.7449706933793477E+01   0.3500530110513046E+01   0.4644170491782089E+01
         123           0      1   0.9742799887895485E+01   0.8892885089720215E+01   0.3382427648033763E+01
         124           0      1   0.2216670683575686E+01   0.3773678478432998E+01   0.1137610594269435E+02
         125           0      1   0.1065858489824535E+02   0.4216134347713779E+01   0.4893102424607261E+01
         126           0      1   0.6107086575424165E+01   0.7271484592132080E+01   0.5430298368598506E+00
         127           0      1   0.1773748641210165E+01   0.1144083813713655E+02   0.7031475800176668E+01
         128           0      1   0.1071315490212064E+02   0.3227071887515113E+01   0.3867625060931351E+01
         129           0      1   0.9051502332276552E+01   0.7555770234412815E+01   0.7472684449835297E+01
         130           0      1   0.7287187251700788E+01   0.1029988943283744E+02   0.1073188662384146E+02
         131           0      1   0.1039077153747015E+02   0.5602122564751188E+01   0.4671495642057783E+01
         132           0      1   0.6913816067948556E+01   0.2312012184838165E+01   0.8597754518544690E+01
         133           0      1   0.2063434843972093E+01   0.5254539779271011E+01   0.4174185667716634E+01
         134           0      1   0.6194855944728029E+01   0.4796842437074367E+01   0.9306559461941978E+01
         135           0      1   0.7883169533752186E+01   0.1107969930110921E+02   0.1012849834534577E+02
         136           0      1   0.1139247611346099E+02   0.5745034091280371E+01   0.1075285591332022E+02
         137           0      1   0.3798634144089782E+01   0.7076894967912022E+01   0.9429156309574850E+01
         138           0      1   0.3891605290577047E+01   0.3346835993352781E+01   0.9477618689422624E+01
         139           0      1   0.3040285401003903E+01   0.1081976968418149E+02   0.5842622759756840E-01
         140           0      1   0.6938421238339497E+01   0.3906179173120798E+01   0.7274599173019914E+01
         141           0      1   0.5529049744589224E+01   0.3343059364448654E+01   0.4959254779826514E+01
         142           0      1   0.2330345859515917E+01   0.8981433119402949E+01   0.1084431350465158E+02
         143           0      1   0.3107812724618814E+01   0.6506864768108414E+01   0.4152861301605180E+01
         144           0      1   0.4962856453369531E+01   0.6571056427801147E+01   0.1091015677214711E+02
         145           0      1   0.4958866354224092E+01   0.7121500186914941E+01   0.7161853182118437E+01
         146           0      1   0.7531418904765953E+00   0.1219069771870815E+00   0.2967200722229047E+01
         147           0      1   0.7766949397390394E+01   0.2762335712613742E+01   0.1793428991500408E+00
         148           0      1   0.4795683912050215E+01   0.1667128900840390E+01   0.4238861740085937E+01
         149           0      1   0.1111643074647140E+02   0.8576209544013603E+01   0.1528323488820096E+01
         150           0      1   0.6350260298449323E+01   0.2530546576455265E+01   0.2054320527411321E+01
         151           0      1   0.1087685628141863E+02   0.7067278736598288E+01   0.6433146280646937E+01
         152           0      1   0.6405202205919351E+00   0.1890938840024692E+01   0.4979894104730371E+01
         153           0      1   0.1074140492924279E+02   0.6904606699474811E+01   0.1027165025532199E+02
         154           0      1   0.1103246873306475E+02   0.1060531270170982E+02   0.2132083500081500E+01
         155           0      1   0.4544734434723407E+01   0.2251450393431259E+01   0.1003695093480618E+02
         156           0      1   0.1432186131541693E+00   0.5585946068716354E+01   0.3024797667800515E+00
         157           0      1   0.4716533276046070E+01   0.1765175617523295E+00   0.3493803834483258E+01
         158           0      1   0.7121631184734829E+01   0.4657994052369507E+01   0.8383717260749490E+01
         159           0      1   0.1070681055946726E+02   0.2064008619042533E+01   0.4233155018260555E+00
         160           0      1   0.7120760793515633E+01   0.1119887629035875E+02   0.2981105231429528E+01
         161           0      1   0.8964439933988494E+01   0.7947980311976312E+01   0.3355136168013959E+01
         162           0      1   0.3822094111895409E+01   0.8619390911454465E+01   0.2597878535067387E+01
         163           0      1   0.1616246976056437E+01   0.7805992423481851E+01   0.5881673223689112E+01
         164           0      1   0.1083340858900464E+02   0.2741012988954941E+01   0.7601951995318874E+01
         165           0      1   0.1044668379324487E+02   0.7772211606232588E+01   0.9443169161964986E+01
         166           0      1   0.2456107501017207E+01   0.1429481664777033E+01   0.6829793584964050E+01
         167           0      1   0.1104388175393986E+02   0.1070853499940385E+01   0.1143609113927898E+02
         168           0      1   0.9988568639557361E+01   0.4886723432517856E+01   0.4826861480714721E+00
         169           0      1   0.9924678812540624E+00   0.5755933520923386E+01   0.8064731212842981E+01
         170           0      1   0.4026854975958143E+01   0.9404539195546869E+01   0.8851464361655399E+00
         171           0      1   0.9710779309932155E+00   0.5572786388384831E+01   0.3706620464586681E+01
         172           0      1   0.8007467627135863E+01   0.6815313553943620E+01   0.1038692205258652E+02
         173           0      1   0.6085215809003014E+01   0.8307355227175441E+01   0.7321633426659429E+01
         174           0      1   0.4251994451336846E+01   0.9430000036148907E+00   0.7129924301532670E+00
         175           0      1   0.3340434761524576E+01   0.2407648658101294E+01   0.2799448394171688E+01
         176           0      1   0.6436479131364604E+01   0.4777500075958578E+01   0.3480318568843767E+01
         177           0      1   0.1112525724624760E+02   0.4633832520307138E+01   0.1650574677348729E+01
         178           0      1   0.7378320144098012E+01   0.6368575994342421E+01   0.5576996900572969E+01
         179           0      1   0.8087542806455120E+01   0.1005716955952623E+02   0.6862817757947236E+01
         180           0      1   0.9009272045255852E+01   0.3416268852291064E+01   0.7444181438962112E+01
         181           0      1   0.2667806707459671E+01   0.6679271532026035E+01   0.5223604519105578E+01
         182           0      1   0.3451551910780321E+01   0.7993721906729198E+01   0.1283266911224077E+01
         183           0      1   0.4724400705524001E+00   0.8314791962277754E+01   0.1096325102373452E+01
         184           0      1   0.2165995681806455E+01   0.8675649955654650E+01   0.5168468716809960E+01
         185           0      1   0.5525353803647439E+01   0.3972742394376518E+01   0.7429633540523485E+01
         186           0      1   0.5721305929513253E+01   0.2303439769353388E+01   0.8878689661771480E+01
         187           0      1   0.8271253716907859E+01   0.1388104770770525E+01   0.2159775562810518E+01
         188           0      1   0.5853571348225997E+01   0.1645781351678734E+01   0.8080250245334947E+00
         189           0      1   0.9302713164495376E+01   0.5093587367357513E+01   0.9041393586220885E+01
         190           0      1   0.6139695357815373E+01   0.3709140635932823E+00   0.9957158969804246E+01
         191           0      1   0.6324421792967239E+01   0.9935041234293070E+01   0.8731553794697875E+01
         192           0      1   0.5405423763179043E+01   0.3308885532386975E+01   0.1394524381884478E-01
         193           0      1   0.5733934502557158E+00   0.7442077159142173E+01   0.3071099747328840E+01
         194           0      1   0.3498641171644594E+01   0.8583751092005937E+01   0.9413786258528088E+01
         195           0      1   0.4905858393649457E+01   0.5192093255992685E+00   0.7857964184833119E+01
         196           0      1   0.4670941788576042E+01   0.2521265833202952E+01   0.5295804966293986E+01
         197           0      1   0.9382031031457634E+01   0.5866422186474358E+01   0.4756794500340443E+00
         198           0      1   0.2349693618885955E+01   0.4522620205160197E+01   0.6097957797045307E+01
         199           0      1   0.5959662941521784E+01   0.1077728265528967E+02   0.8338385868048617E+01
         200           0      1   0.3136715130349796E+01   0.9752384512248401E+01   0.9159154171360528E+01
         201           0      1   0.4428728518690729E+01   0.3314039458228589E+01   0.3269838013222370E+01
         202           0      1   0.3171467329080162E+01   0.3611962496179157E+00   0.1147692528722590E+02
         203           0      1   0.1827775271009483E+01   0.1351009714117874E+00   0.2521310085722325E+01
         204           0      1   0.5926076052958414E+01   0.8962884140656504E+01   0.1130453016679867E+02
         205           0      1   0.8737066339465612E+01   0.6996019357504826E+01   0.7952742475707655E+00
         206           0      1   0.7561753706316422E+01   0.7324591904520827E+01   0.8746067722054949E+01
         207           0      1   0.3628911495511034E-02   0.9385458401274969E+01   0.8552725811574225E+01
         208           0      1   0.6268411829694944E+01   0.4582628492198973E+01   0.6569746886246262E+01
         209           0      1   0.8048778380243073E+01   0.6920070707795793E+01   0.1146566484852332E+02
         210           0      1   0.2332426978321149E+01   0.1107993300126606E+02   0.1083632153917002E+02
         211           0      1   0.4506842847648993E+01   0.9574217440297902E+01   0.1055914199641891E+02
         212           0      1   0.1037714222762514E+02   0.1150325152408823E+02   0.9567640684099883E+01
         213           0      1   0.7831063300871786E+01   0.8221295122772883E+01   0.1018762487234654E+02
         214           0      1   0.4919544824791366E+01   0.1040471594858441E+02   0.8263868140825158E+01
         215           0      1   0.1238863402770572E+00   0.6651389237287979E+01   0.7441807705833078E+00
         216           0      1   0.3897487546781993E+01   0.9593796175963936E+01   0.3589252429506298E+01
         217           0      1   0.5010952161139486E+01   0.6015417206169574E+01   0.6668833260823922E+01
         218           0      1   0.1683698255937846E+00   0.7111564776875997E+01   0.9459487593544885E+01
         219           0      1   0.2824917760517193E+01   0.6375033624986061E+00   0.4862478633766584E+01
         220           0      1   0.6056654486275874E+01   0.6977614589283195E+01   0.1598448285862471E+01
         221           0      1   0.1763868366755934E+01   0.6175319743292468E+01   0.7223802809512239E+01
         222           0      1   0.4418653946788582E+00   0.7245563289333363E+00   0.6008624384250598E+00
         223           0      1   0.1141655956181334E+02   0.1978771935537886E+01   0.7144372929654122E+01
         224           0      1   0.1042054090564233E+02   0.8944394417964475E+01   0.7475945938365564E+01
         225           0      1   0.6165963397459551E+01   0.4694476528052561E+01   0.5397500744055989E+01
         226           0      1   0.1025123308622034E+02   0.4739913315765554E+01   0.2413422920205722E+01
         227           0      1   0.5348145177515642E+01   0.2872890662123200E+01   0.6474086774245301E+01
         228           0      1   0.4811211368057600E+01   0.3489597499285922E+01   0.1047138757336809E+02
         229           0      1   0.9626495276374810E+01   0.2038208807750168E+01   0.4969675997582892E+01
         230           0      1   0.1291164892739199E+01   0.1000553569397489E+02   0.4000336433853406E+01
         231           0      1   0.2599215549728632E+00   0.7226992306928337E+00   0.7138357618726728E+01
         232           0      1   0.5052117180498461E+01   0.8096043711245509E+01   0.6729896594362815E+01
         233           0      1   0.2048920083927742E+01   0.5308229793954021E+01   0.1005106644472899E+02
         234           0      1   0.1037487765816465E+02   0.5576798246191379E+01   0.1111289682798714E+02
         235           0      1   0.7902922523190181E+01   0.1099026399643512E+02   0.4763714481663320E+01
         236           0      1   0.5180328980731313E+01   0.1151737575856605E+02   0.8930187638154523E+01
         237           0      1   0.6381903058535092E+01   0.2531449095645258E+01   0.5411900762537068E+01
         238           0      1   0.1070328512038622E+02   0.3818583737881683E+01   0.2491532013974370E+01
         239           0      1   0.1119394697937608E+02   0.4341929129027638E+01   0.3792595336346573E+00
         240           0      1   0.4113881157507287E+00   0.8176231533784733E+01   0.8083424148489328E+01
         241           0      1   0.2329195943738525E+01   0.6329136195939178E+00   0.1093872120276083E+02
         242           0      1   0.4201339658396125E+00   0.1895699511888800E+01   0.2907558633209532E+01
         243           0      1   0.1073153223417438E+02   0.3660907039657474E+01   0.8074485500866276E+01
         244           0      1   0.2990736651996594E+01   0.4761742419405331E+00   0.2934417913332061E+01
         245           0      1   0.5135619269437604E+01   0.9666383147160776E+01   0.6524099556413468E+01
         246           0      1   0.9464287348659756E+01   0.4924281102003545E+01   0.4972800518111102E+01
         247           0      1   0.2311873002585001E+01   0.5260326313626811E+01   0.7085966080737626E+01
         248           0      1   0.9538319976167069E+01   0.1752332573152813E+01   0.1096757178103927E+02
         249           0      1   0.4605509225377214E+01   0.3867249801878303E+01   0.4177448849240548E+01
         250           0      1   0.3063696789631510E+01   0.8951494454756418E+01   0.6989261458528787E+00
         251           0      1   0.1020732940868703E+02   0.5967109800740426E+01   0.9833756700633307E+01
         252           0      1   0.2202033238663909E+00   0.1176568267578191E+01   0.3603361715449931E+01
         253           0      1   0.4666729542763492E+01   0.5286037629813574E+01   0.1130169350906727E+02
         254           0      1   0.2512468412605932E+01   0.5346944686953317E+01   0.8158400522791231E+01
         255           0      1   0.4406677231060263E+01   0.1965778105666024E+01   0.1112643390884318E+02
         256           0      1   0.1020725975184504E+01   0.4530075478700671E+01   0.8806878314283134E+01
         257           0      1   0.9927800945300090E+01   0.3459747733708183E+01   0.1035842936884788E+02
         258           0      1   0.1060684672873615E+01   0.3606917143848634E+01   0.1145855789870533E+02
         259           0      1   0.9220007287664380E+01   0.1362063020119411E+01   0.8532387981846004E+01
         260           0      1   0.8987828407094799E+01   0.9189045259975094E+01   0.7276810304103362E+01
         261           0      1   0.5813070655256506E+01   0.4181429978803205E+01   0.1010043128586549E+02
         262           0      1   0.2550595380545286E+00   0.9274288082554131E+01   0.6820748033922131E+01
         263           0      1   0.1026448798342432E+02   0.4224154854781609E+01   0.1507029502606734E+01
         264           0      1   0.9502616581238579E+01   0.8562107422148888E+01   0.9324946682555154E+01
         265           0      1   0.2634972173178271E+01   0.3966379440453015E+01   0.5354069082967023E+01
         266           0      1   0.6423721056150009E+01   0.1108108274686781E+02   0.7387153272757173E+01
         267           0      1   0.2834132159630916E+01   0.5148078917839090E+01   0.9073232447361574E+01
         268           0      1   0.1091118992789428E+02   0.2257634587617563E+01   0.3067912291405395E+01
         269           0      1   0.6573088368924620E+01   0.1095394132291694E+02   0.1024995912650994E+02
         270           0      1   0.3367490276828499E+00   0.2937737294880792E+01   0.9415133449216359E+01
         271           0      1   0.3966966312697086E+01   0.5015868169546981E+01   0.1499210132616310E+01
         272           0      1   0.6126495816807773E+01   0.7585277146324181E+01   0.8548597312945674E+01
         273           0      1   0.4704770149873218E+01   0.3938843843824116E+01   0.8078056110299181E+01
         274           0      1   0.9847704393065596E+01   0.1095001315239468E+02   0.7066025697759414E+01
         275           0      1   0.1010868752574480E+01   0.9150748032655631E+01   0.7618549386870204E+01
         276           0      1   0.9260362816704817E+00   0.1041523714362888E+02   0.6424709578945791E+01
         277           0      1   0.1012368577219566E+02   0.9496787984949179E+01   0.5213280904816011E+01