LAMMPS data file via write_data, version 29 Oct 2020, timestep = 10000000

18688 atoms
7 atom types
69632 bonds
1 bond types

0.0 18.434689731165868 xlo xhi
0.0 18.434689731165868 ylo yhi
0.0 57.60840540989334 zlo zhi

Masses

1 1
2 4.88345
3 4.88345
4 4.88345
5 4.88345
6 4.88345
7 4.88345

Bond Coeffs # harmonic

1 324 0.8147

Atoms # bond

15620 0 5 1.168640856866725 0.5646300343283047 1.7552886950861304 0 0 0
15649 0 5 0.5577696929469581 1.125599154478705 1.7460817176951346 0 0 0
15651 0 5 1.7485694907808362 1.1592852613266447 1.693882737719444 0 0 0
15652 0 5 1.135824871741466 1.741499638889079 1.7255121874418364 0 0 0
18177 0 7 0.0 0.0 1.1521681081978667 0 0 0
18178 0 7 0.5760840540989334 0.5760840540989334 1.1521681081978667 0 0 0
18179 0 7 1.1521681081978667 0.0 1.1521681081978667 0 0 0
18180 0 7 1.7282521622968001 0.5760840540989334 1.1521681081978667 0 0 0
18209 0 7 0.0 1.1521681081978667 1.1521681081978667 0 0 0
18210 0 7 0.5760840540989334 1.7282521622968001 1.1521681081978667 0 0 0
18211 0 7 1.1521681081978667 1.1521681081978667 1.1521681081978667 0 0 0
18212 0 7 1.7282521622968001 1.7282521622968001 1.1521681081978667 0 0 0
16194 0 5 0.607961504012452 1.7377573496683725 2.3051969439190554 0 0 0
16197 0 5 1.1511941696020351 1.1524300370712404 2.298173756829095 0 0 0
16261 0 5 1.146197224849124 2.327201682638655 2.2860210059204924 0 0 0
6398 0 1 16.85037727987863 8.302206726546231 11.413563529175578 4 -2 0
867 0 1 6.275009357591837 3.1413790144223244 11.149548856054043 -7 -1 0
15622 0 5 2.3036708002576596 0.5848806371848377 1.7198129073444146 0 0 0
15624 0 5 3.4413092050764376 0.588040833388809 1.7122163351839954 0 0 0
15653 0 5 2.8865891612633545 1.162859375122923 1.6908374429535993 0 0 0
15654 0 5 2.25814080782356 1.7052348397978383 1.7217924344607087 0 0 0
15656 0 5 3.4347572919930465 1.719004537766466 1.6933216217394502 0 0 0
18181 0 7 2.3043362163957335 0.0 1.1521681081978667 0 0 0
18182 0 7 2.8804202704946666 0.5760840540989334 1.1521681081978667 0 0 0
18183 0 7 3.4565043245936002 0.0 1.1521681081978667 0 0 0
18184 0 7 4.032588378692534 0.5760840540989334 1.1521681081978667 0 0 0
18213 0 7 2.3043362163957335 1.1521681081978667 1.1521681081978667 0 0 0
18214 0 7 2.8804202704946666 1.7282521622968001 1.1521681081978667 0 0 0
18215 0 7 3.4565043245936002 1.1521681081978667 1.1521681081978667 0 0 0
18216 0 7 4.032588378692534 1.7282521622968001 1.1521681081978667 0 0 0
15655 0 5 4.070122520628821 1.21263668493146 1.7252565485226585 0 0 0
15685 0 5 2.8610448278465075 2.272045635291755 1.7062531185933651 0 0 0
16205 0 5 3.4059668008268664 1.168795131403173 2.3009051405832674 0 0 0
3216 0 1 17.285263384669637 7.767028742881095 10.33377678302602 -5 -14 0
530 0 1 1.438501556163858 4.7443330623530935 11.383035842368045 -4 1 0
15626 0 5 4.612137978111739 0.6146475632905681 1.7164611656136293 0 0 0
15628 0 5 5.731237213168913 0.5870192260940593 1.7487764082015564 0 0 0
15657 0 5 5.1645293709095 1.1729861963815584 1.7181923994046573 0 0 0
15658 0 5 4.623901469078758 1.7504909563808517 1.7408271029814892 0 0 0
15660 0 5 5.758372785596217 1.7677905461007215 1.7243054915211269 0 0 0
18185 0 7 4.608672432791467 0.0 1.1521681081978667 0 0 0
18186 0 7 5.1847564868904 0.5760840540989334 1.1521681081978667 0 0 0
18187 0 7 5.760840540989333 0.0 1.1521681081978667 0 0 0
18217 0 7 4.608672432791467 1.1521681081978667 1.1521681081978667 0 0 0
18218 0 7 5.1847564868904 1.7282521622968001 1.1521681081978667 0 0 0
18219 0 7 5.760840540989333 1.1521681081978667 1.1521681081978667 0 0 0
15689 0 5 5.199937956179568 2.3363684195462713 1.7096335226615615 0 0 0
16146 0 5 5.113891828619986 0.6000773861667016 2.281327009312085 0 0 0
16210 0 5 5.204531664675801 1.7520143191772348 2.286627108301433 0 0 0
16209 0 5 4.59017901570028 1.187331752284871 2.2730926888988523 0 0 0
3744 0 1 16.318432351850525 7.898936737670954 10.386288834726846 1 7 0
15630 0 5 6.917204397059488 0.5956274448786604 1.7069492424912294 0 0 0
15632 0 5 8.054555038555062 0.5820743479766186 1.7227515249702865 0 0 0
15659 0 5 6.310898884452605 1.1270185018624637 1.7370876558745776 0 0 0
15661 0 5 7.498168395609669 1.1595553069722995 1.7023228593300006 0 0 0
15662 0 5 6.880662109063253 1.7246619918212902 1.7156159756157021 0 0 0
15664 0 5 8.062234185488881 1.7402302189436163 1.7235776683350736 0 0 0
18188 0 7 6.336924595088267 0.5760840540989334 1.1521681081978667 0 0 0
18189 0 7 6.9130086491872005 0.0 1.1521681081978667 0 0 0
18190 0 7 7.489092703286134 0.5760840540989334 1.1521681081978667 0 0 0
18191 0 7 8.065176757385068 0.0 1.1521681081978667 0 0 0
18220 0 7 6.336924595088267 1.7282521622968001 1.1521681081978667 0 0 0
18221 0 7 6.9130086491872005 1.1521681081978667 1.1521681081978667 0 0 0
18222 0 7 7.489092703286134 1.7282521622968001 1.1521681081978667 0 0 0
18223 0 7 8.065176757385068 1.1521681081978667 1.1521681081978667 0 0 0
11555 0 3 9.79465728890841 0.03355804819948987 6.310465683102513 0 0 0
15691 0 5 6.3563169338648216 2.333435050783199 1.7493579300316222 0 0 0
15693 0 5 7.491407736993176 2.29673255620248 1.757197719263782 0 0 0
16214 0 5 6.357879778983202 1.7273513520674149 2.3055206870798775 0 0 0
16150 0 5 6.330844950598078 0.5647473274330711 2.2835559801467946 0 0 0
10553 0 3 16.124378605974133 0.0020483028978955055 4.5947565006161115 0 0 0
15634 0 5 9.243516617642502 0.6097853554645432 1.7215408799297052 0 0 0
15663 0 5 8.60991538033365 1.1743672900940325 1.7134409393530698 0 0 0
15665 0 5 9.766737905083588 1.1414353462144613 1.7013126312690823 0 0 0
15666 0 5 9.206013008554292 1.692514555774485 1.71269803347603 0 0 0
18192 0 7 8.641260811484 0.5760840540989334 1.1521681081978667 0 0 0
18193 0 7 9.217344865582934 0.0 1.1521681081978667 0 0 0
18194 0 7 9.793428919681867 0.5760840540989334 1.1521681081978667 0 0 0
18224 0 7 8.641260811484 1.7282521622968001 1.1521681081978667 0 0 0
18225 0 7 9.217344865582934 1.1521681081978667 1.1521681081978667 0 0 0
18226 0 7 9.793428919681867 1.7282521622968001 1.1521681081978667 0 0 0
16225 0 5 9.241897853824659 1.1439959878070245 2.301971489983422 0 0 0
15697 0 5 9.771563838298695 2.3115421838432475 1.7559633374465389 0 0 0
16222 0 5 8.634246798335127 1.696587237420746 2.258052496623504 0 0 0
16162 0 5 9.7886264315188 0.548242300167451 2.2977985747418437 0 0 0
6384 0 1 16.968264536099177 7.222193808850478 11.111938177780775 -3 -4 0
15636 0 5 10.363839906758644 0.5759735147195078 1.7319786939280641 0 0 0
15638 0 5 11.536082830733529 0.57239275330145 1.7204051262786084 0 0 0
15667 0 5 10.984212593238606 1.1426599978933654 1.747498594921956 0 0 0
15668 0 5 10.338189421629636 1.7292233741025522 1.7362846058133734 0 0 0
15669 0 5 12.090841710370933 1.1282456431102041 1.7036031389541213 0 0 0
15670 0 5 11.528618971222645 1.7262346494378054 1.7253956578673568 0 0 0
18195 0 7 10.3695129737808 0.0 1.1521681081978667 0 0 0
18196 0 7 10.945597027879733 0.5760840540989334 1.1521681081978667 0 0 0
18197 0 7 11.521681081978667 0.0 1.1521681081978667 0 0 0
18198 0 7 12.097765136077602 0.5760840540989334 1.1521681081978667 0 0 0
18227 0 7 10.3695129737808 1.1521681081978667 1.1521681081978667 0 0 0
18228 0 7 10.945597027879733 1.7282521622968001 1.1521681081978667 0 0 0
18229 0 7 11.521681081978667 1.1521681081978667 1.1521681081978667 0 0 0
18230 0 7 12.097765136077602 1.7282521622968001 1.1521681081978667 0 0 0
15699 0 5 10.952289756550316 2.3179177654676297 1.7108038803009522 0 0 0
16230 0 5 10.972379090758782 1.723296765895465 2.303598363562999 0 0 0
16234 0 5 12.111387128902553 1.7196787121614427 2.2987166297277883 0 0 0
16229 0 5 10.402681229259189 1.1261962571707607 2.2875568633896775 0 0 0
16166 0 5 10.93534996395269 0.5733210766442215 2.317658604780633 0 0 0
6004 0 1 16.83666469381814 7.218084134996078 9.60957551118115 2 6 0
271 0 1 17.973006772874726 2.3015279352246867 11.15049009955066 3 -4 0
15640 0 5 12.662330605666543 0.6288453398567715 1.7181612219656148 0 0 0
15642 0 5 13.831623499629751 0.5774924191185643 1.7227418305138837 0 0 0
15671 0 5 13.266396558027044 1.1727404537934976 1.7470221793020893 0 0 0
15672 0 5 12.659845965641075 1.705216266204378 1.7162920918857898 0 0 0
15674 0 5 13.79731375272454 1.725872504475438 1.7279317223423993 0 0 0
18199 0 7 12.673849190176535 0.0 1.1521681081978667 0 0 0
18200 0 7 13.249933244275468 0.5760840540989334 1.1521681081978667 0 0 0
18201 0 7 13.826017298374401 0.0 1.1521681081978667 0 0 0
18231 0 7 12.673849190176535 1.1521681081978667 1.1521681081978667 0 0 0
18232 0 7 13.249933244275468 1.7282521622968001 1.1521681081978667 0 0 0
18233 0 7 13.826017298374401 1.1521681081978667 1.1521681081978667 0 0 0
705 0 1 18.159268931957204 5.098863902393759 11.51148903544601 4 7 0
15673 0 5 14.39572246676975 1.1602834708016312 1.7221879952071586 0 0 0
15644 0 5 14.97221424286799 0.5473820168521504 1.7194195835899362 0 0 0
15646 0 5 16.143767883517835 0.5616751130429567 1.7180389104423528 0 0 0
15675 0 5 15.520612375098665 1.1605783721837162 1.6901165474038604 0 0 0
15676 0 5 14.993591872459016 1.6808110239340048 1.7072789420801555 0 0 0
15678 0 5 16.171940497591514 1.7309125127760676 1.728656744100651 0 0 0
18202 0 7 14.402101352473334 0.5760840540989334 1.1521681081978667 0 0 0
18203 0 7 14.978185406572267 0.0 1.1521681081978667 0 0 0
18204 0 7 15.5542694606712 0.5760840540989334 1.1521681081978667 0 0 0
18205 0 7 16.130353514770135 0.0 1.1521681081978667 0 0 0
18234 0 7 14.402101352473334 1.7282521622968001 1.1521681081978667 0 0 0
18235 0 7 14.978185406572267 1.1521681081978667 1.1521681081978667 0 0 0
18236 0 7 15.5542694606712 1.7282521622968001 1.1521681081978667 0 0 0
18237 0 7 16.130353514770135 1.1521681081978667 1.1521681081978667 0 0 0
16245 0 5 14.968746606298375 1.124794014462789 2.308546136662202 0 0 0
16178 0 5 14.421061457266584 0.5648955832364144 2.3061981056338507 0 0 0
15707 0 5 15.537181850935967 2.317019553294587 1.729316643695864 0 0 0
16246 0 5 15.560639280423617 1.7531016018143781 2.3314380667489263 0 0 0
16249 0 5 16.07113120208422 1.127050170635493 2.268241814820486 0 0 0
10521 0 3 6.899161351693985 0.05621753577073699 4.611443443993012 0 0 0
724 0 1 16.54037320345916 5.937662808851814 11.397351393370405 1 -2 0
15650 0 5 0.02043825246056455 1.6866946128633087 1.7842888138851931 0 0 0
15618 0 5 18.430311413002944 0.5688186025369392 1.7403007710120082 -1 0 0
15648 0 5 17.249344951256607 0.5565686926111308 1.72940652001183 0 0 0
15677 0 5 16.6830150463072 1.1591429360638787 1.7387292588299486 0 0 0
15679 0 5 17.84758706926729 1.134004627365438 1.7044806606839686 0 0 0
15680 0 5 17.257822379581768 1.6952818575850421 1.7249655526460768 0 0 0
18206 0 7 16.706437568869067 0.5760840540989334 1.1521681081978667 0 0 0
18207 0 7 17.282521622968 0.0 1.1521681081978667 0 0 0
18208 0 7 17.858605677066933 0.5760840540989334 1.1521681081978667 0 0 0
18238 0 7 16.706437568869067 1.7282521622968001 1.1521681081978667 0 0 0
18239 0 7 17.282521622968 1.1521681081978667 1.1521681081978667 0 0 0
18240 0 7 17.858605677066933 1.7282521622968001 1.1521681081978667 0 0 0
16186 0 5 16.670326283434783 0.5364177551257798 2.3297512331700974 0 0 0
15711 0 5 17.861115702108258 2.3010836479411494 1.7158980074548555 0 0 0
3312 0 1 12.07693413334919 0.9069309815080218 8.536626760896468 -11 -2 0
1887 0 1 18.161237298505426 7.041979832448285 9.797124098932867 -5 -7 0
15683 0 5 1.7584513225098026 2.3238678548424003 1.7304001671624625 0 0 0
15681 0 5 0.5140854053968794 2.318669820098334 1.7200472915680822 0 0 0
15684 0 5 1.1336148724660273 2.8263198488114836 1.753460533638051 0 0 0
15713 0 5 0.5881595411794583 3.4271643932866667 1.7119775431531001 0 0 0
15715 0 5 1.7641601611096283 3.455483728020348 1.6976595141928352 0 0 0
18241 0 7 0.0 2.3043362163957335 1.1521681081978667 0 0 0
18242 0 7 0.5760840540989334 2.8804202704946666 1.1521681081978667 0 0 0
18243 0 7 1.1521681081978667 2.3043362163957335 1.1521681081978667 0 0 0
18244 0 7 1.7282521622968001 2.8804202704946666 1.1521681081978667 0 0 0
18273 0 7 0.0 3.4565043245936002 1.1521681081978667 0 0 0
18274 0 7 0.5760840540989334 4.032588378692534 1.1521681081978667 0 0 0
18275 0 7 1.1521681081978667 3.4565043245936002 1.1521681081978667 0 0 0
18276 0 7 1.7282521622968001 4.032588378692534 1.1521681081978667 0 0 0
15716 0 5 1.1468190523165656 4.00900732144282 1.72390712476529 0 0 0
16325 0 5 1.1826436402003753 3.436656086756529 2.2686510547020045 0 0 0
16326 0 5 1.7413061872315616 4.045330215119779 2.262772833109724 0 0 0
15682 0 5 18.39434444502433 2.899108415008278 1.6988617995001534 -1 0 0
15714 0 5 18.395492603220895 4.005844563105772 1.7417578995565621 -1 0 0
16321 0 5 18.431264393940516 3.443651538643848 2.312502429968434 -1 0 0
16262 0 5 1.7144270855693975 2.870217694703942 2.2892954083927046 0 0 0
15687 0 5 4.045812514723009 2.322480858369216 1.7112118405935293 0 0 0
15686 0 5 2.3410472426261477 2.8883862727553913 1.7024715818253606 0 0 0
15688 0 5 3.4348168308655205 2.886355702771033 1.73206528171226 0 0 0
15717 0 5 2.888180663645624 3.443563298282139 1.72384578338251 0 0 0
18245 0 7 2.3043362163957335 2.3043362163957335 1.1521681081978667 0 0 0
18246 0 7 2.8804202704946666 2.8804202704946666 1.1521681081978667 0 0 0
18247 0 7 3.4565043245936002 2.3043362163957335 1.1521681081978667 0 0 0
18248 0 7 4.032588378692534 2.8804202704946666 1.1521681081978667 0 0 0
18277 0 7 2.3043362163957335 3.4565043245936002 1.1521681081978667 0 0 0
18278 0 7 2.8804202704946666 4.032588378692534 1.1521681081978667 0 0 0
18279 0 7 3.4565043245936002 3.4565043245936002 1.1521681081978667 0 0 0
18280 0 7 4.032588378692534 4.032588378692534 1.1521681081978667 0 0 0
15718 0 5 2.339296573047273 4.0129873310364035 1.740563097050788 0 0 0
15720 0 5 3.4730391407882344 4.036392086704919 1.7195292722172912 0 0 0
15719 0 5 4.002276980667436 3.4407769417129814 1.766732630860524 0 0 0
16334 0 5 4.022580575181166 4.024626271536938 2.3396270490818702 0 0 0
16330 0 5 2.878004771759208 4.03031492075666 2.312072908591581 0 0 0
16269 0 5 3.421992332952171 2.2976245432245936 2.2612128730005705 0 0 0
16329 0 5 2.2880171822636406 3.4632866201786183 2.3406655715367317 0 0 0
16270 0 5 4.030765447971738 2.8887566911906304 2.326670948835369 0 0 0
15690 0 5 4.622189341247993 2.8863997865807285 1.7517317898112024 0 0 0
15692 0 5 5.770648646552303 2.8821855837563164 1.7345397099810187 0 0 0
15721 0 5 5.187719389591031 3.4418763067762277 1.7282134946372083 0 0 0
18249 0 7 4.608672432791467 2.3043362163957335 1.1521681081978667 0 0 0
18250 0 7 5.1847564868904 2.8804202704946666 1.1521681081978667 0 0 0
18251 0 7 5.760840540989333 2.3043362163957335 1.1521681081978667 0 0 0
18281 0 7 4.608672432791467 3.4565043245936002 1.1521681081978667 0 0 0
18282 0 7 5.1847564868904 4.032588378692534 1.1521681081978667 0 0 0
18283 0 7 5.760840540989333 3.4565043245936002 1.1521681081978667 0 0 0
15724 0 5 5.786818133480604 4.050540959934263 1.7136802856811573 0 0 0
15722 0 5 4.608666570580922 4.039100095467216 1.7191272527337558 0 0 0
16401 0 5 4.617835014374731 4.625180171832645 2.3084291703802973 0 0 0
16341 0 5 5.749189095947365 3.459111093830951 2.3457858137906924 0 0 0
16337 0 5 4.601699840646034 3.4210924936564355 2.3366341226726783 0 0 0
16274 0 5 5.201473382809536 2.861464748267028 2.327169961464996 0 0 0
16405 0 5 5.749992175385104 4.636069972378969 2.2744829480148447 0 0 0
15753 0 5 5.159650578756235 4.614903220130271 1.7506274937263901 0 0 0
16273 0 5 4.59430294253958 2.30002373969979 2.308051939036178 0 0 0
16338 0 5 5.20963317075299 3.99693097032198 2.2965792317318074 0 0 0
15694 0 5 6.935661713608848 2.8881327500907545 1.7292884065138672 0 0 0
15696 0 5 8.096227260173219 2.848112128305437 1.7540172266233096 0 0 0
15723 0 5 6.306492393433449 3.4461679913379175 1.7496109412775045 0 0 0
15725 0 5 7.486232120597604 3.4538948480583134 1.7160774505859853 0 0 0
18252 0 7 6.336924595088267 2.8804202704946666 1.1521681081978667 0 0 0
18253 0 7 6.9130086491872005 2.3043362163957335 1.1521681081978667 0 0 0
18254 0 7 7.489092703286134 2.8804202704946666 1.1521681081978667 0 0 0
18255 0 7 8.065176757385068 2.3043362163957335 1.1521681081978667 0 0 0
18284 0 7 6.336924595088267 4.032588378692534 1.1521681081978667 0 0 0
18285 0 7 6.9130086491872005 3.4565043245936002 1.1521681081978667 0 0 0
18286 0 7 7.489092703286134 4.032588378692534 1.1521681081978667 0 0 0
18287 0 7 8.065176757385068 3.4565043245936002 1.1521681081978667 0 0 0
15728 0 5 8.103853540482012 4.008731983576078 1.7104190449446264 0 0 0
15726 0 5 6.915139169057767 4.022289662769293 1.755047800101257 0 0 0
16342 0 5 6.3204564964347165 4.008249772746122 2.338077526427223 0 0 0
16278 0 5 6.342566505407708 2.8990094309645973 2.3116026984837856 0 0 0
16349 0 5 8.084719207009519 3.440960229762968 2.3163128213533315 0 0 0
16281 0 5 6.935624473141962 2.306499576906271 2.2940564898824274 0 0 0
16345 0 5 6.958323155258099 3.4516724361946345 2.296609381369723 0 0 0
16346 0 5 7.532964149402615 4.019869041792015 2.26117894368433 0 0 0
15695 0 5 8.651841389088448 2.307675188606788 1.715716545170282 0 0 0
15698 0 5 9.19316084135513 2.8955970415986303 1.715140257518046 0 0 0
15727 0 5 8.611424966095061 3.449557953198007 1.7446382765602668 0 0 0
15729 0 5 9.788152596489153 3.4523940799144417 1.7039043136741177 0 0 0
18256 0 7 8.641260811484 2.8804202704946666 1.1521681081978667 0 0 0
18257 0 7 9.217344865582934 2.3043362163957335 1.1521681081978667 0 0 0
18258 0 7 9.793428919681867 2.8804202704946666 1.1521681081978667 0 0 0
18288 0 7 8.641260811484 4.032588378692534 1.1521681081978667 0 0 0
18289 0 7 9.217344865582934 3.4565043245936002 1.1521681081978667 0 0 0
18290 0 7 9.793428919681867 4.032588378692534 1.1521681081978667 0 0 0
15730 0 5 9.172286625555435 4.04709046000217 1.7036605786586685 0 0 0
15761 0 5 9.782668442389431 4.628599998199012 1.7673543036839086 0 0 0
16350 0 5 8.680241437142051 4.044095468448291 2.303963159341262 0 0 0
15701 0 5 12.12010937319855 2.303989918036465 1.7533799886136359 0 0 0
15700 0 5 10.365447573279429 2.8388276314843575 1.7264124116460657 0 0 0
15702 0 5 11.503892744054731 2.8944696866509805 1.7169916338287854 0 0 0
15731 0 5 10.925122280332118 3.4437745981953993 1.7532660564034228 0 0 0
15733 0 5 12.097352451508115 3.4257716856515357 1.7169420033061602 0 0 0
18259 0 7 10.3695129737808 2.3043362163957335 1.1521681081978667 0 0 0
18260 0 7 10.945597027879733 2.8804202704946666 1.1521681081978667 0 0 0
18261 0 7 11.521681081978667 2.3043362163957335 1.1521681081978667 0 0 0
18262 0 7 12.097765136077602 2.8804202704946666 1.1521681081978667 0 0 0
18291 0 7 10.3695129737808 3.4565043245936002 1.1521681081978667 0 0 0
18292 0 7 10.945597027879733 4.032588378692534 1.1521681081978667 0 0 0
18293 0 7 11.521681081978667 3.4565043245936002 1.1521681081978667 0 0 0
18294 0 7 12.097765136077602 4.032588378692534 1.1521681081978667 0 0 0
15732 0 5 10.395565709863188 4.03132037172272 1.710739140086115 0 0 0
15734 0 5 11.517891485797765 3.9910676100039137 1.6901285478514085 0 0 0
16362 0 5 12.078049843282265 3.993380319125354 2.300179310220436 0 0 0
15763 0 5 10.953086489649321 4.569943649178988 1.7115711173445671 0 0 0
16298 0 5 12.103089978706338 2.8723564724014636 2.287598436037918 0 0 0
16358 0 5 10.952092949295144 4.020455490232874 2.305944304430728 0 0 0
16361 0 5 11.520629563522954 3.4588805688970186 2.2737494306896333 0 0 0
15703 0 5 13.235158278079554 2.2669212365103197 1.7060561811584352 0 0 0
16305 0 5 13.877266457101232 2.2863003417187477 2.3196297643095116 0 0 0
15704 0 5 12.67015632394786 2.8760915298877316 1.7310334607823057 0 0 0
15706 0 5 13.821527152599666 2.875354764625408 1.7558474579413368 0 0 0
15735 0 5 13.249538965884511 3.4621396773328166 1.708292263167547 0 0 0
18263 0 7 12.673849190176535 2.3043362163957335 1.1521681081978667 0 0 0
18264 0 7 13.249933244275468 2.8804202704946666 1.1521681081978667 0 0 0
18265 0 7 13.826017298374401 2.3043362163957335 1.1521681081978667 0 0 0
18295 0 7 12.673849190176535 3.4565043245936002 1.1521681081978667 0 0 0
18296 0 7 13.249933244275468 4.032588378692534 1.1521681081978667 0 0 0
18297 0 7 13.826017298374401 3.4565043245936002 1.1521681081978667 0 0 0
15738 0 5 13.837866689995755 4.042614680878299 1.7008528951183932 0 0 0
15736 0 5 12.628018252239704 4.0242036894490125 1.712656348267208 0 0 0
16365 0 5 12.717824378661733 3.4595848512893568 2.3100576170404272 0 0 0
16369 0 5 13.819552172939398 3.418540098425611 2.277607789327108 0 0 0
16301 0 5 12.702873642673609 2.2892580874541477 2.2881168454624916 0 0 0
16302 0 5 13.280479992891516 2.8529558887704587 2.27794798851674 0 0 0
16433 0 5 13.859650143847054 4.6149428103777606 2.3049254920744224 0 0 0
15705 0 5 14.392900152971732 2.279266388095948 1.718079853155914 0 0 0
16309 0 5 14.964578519281535 2.276276903004252 2.2899481206672867 0 0 0
15737 0 5 14.44489823746371 3.442953785169352 1.7693663446940762 0 0 0
15708 0 5 14.955261512068223 2.8760430076071457 1.7421953339247152 0 0 0
15710 0 5 16.158021458041343 2.8944330659311124 1.7131421565564933 0 0 0
15739 0 5 15.581417593703108 3.480630607454124 1.7057572781344608 0 0 0
18266 0 7 14.402101352473334 2.8804202704946666 1.1521681081978667 0 0 0
18267 0 7 14.978185406572267 2.3043362163957335 1.1521681081978667 0 0 0
18268 0 7 15.5542694606712 2.8804202704946666 1.1521681081978667 0 0 0
18269 0 7 16.130353514770135 2.3043362163957335 1.1521681081978667 0 0 0
18298 0 7 14.402101352473334 4.032588378692534 1.1521681081978667 0 0 0
18299 0 7 14.978185406572267 3.4565043245936002 1.1521681081978667 0 0 0
18300 0 7 15.5542694606712 4.032588378692534 1.1521681081978667 0 0 0
18301 0 7 16.130353514770135 3.4565043245936002 1.1521681081978667 0 0 0
15740 0 5 14.972879087337617 4.053231882976219 1.719769489496252 0 0 0
15742 0 5 16.156128383009268 3.994104950657105 1.7044842023495257 0 0 0
16373 0 5 14.990571851386315 3.4795875509208662 2.3122043030174506 0 0 0
16370 0 5 14.378321311679993 4.033095507618673 2.3118116793786667 0 0 0
16257 0 5 18.429142549835394 2.2672754271379096 2.3021166052983504 -1 0 0
15709 0 5 16.695632873705772 2.320020088609096 1.726969301221174 0 0 0
15712 0 5 17.26275828732478 2.8779344613851587 1.7234466549207674 0 0 0
15741 0 5 16.68734838272891 3.4698262338593393 1.7272001569595872 0 0 0
15743 0 5 17.83629395088408 3.482871398449733 1.7179381572597787 0 0 0
18270 0 7 16.706437568869067 2.8804202704946666 1.1521681081978667 0 0 0
18271 0 7 17.282521622968 2.3043362163957335 1.1521681081978667 0 0 0
18272 0 7 17.858605677066933 2.8804202704946666 1.1521681081978667 0 0 0
18302 0 7 16.706437568869067 4.032588378692534 1.1521681081978667 0 0 0
18303 0 7 17.282521622968 3.4565043245936002 1.1521681081978667 0 0 0
18304 0 7 17.858605677066933 4.032588378692534 1.1521681081978667 0 0 0
15744 0 5 17.29207879856656 3.996162652710638 1.7143799186807698 0 0 0
15773 0 5 16.688516671830502 4.584797447938915 1.7150013569848597 0 0 0
16378 0 5 16.69185560463311 4.027869370422721 2.313389890264761 0 0 0
16382 0 5 17.808551770691217 4.008253911834466 2.3116634601015678 0 0 0
15745 0 5 0.5826480595882402 4.563993035561787 1.720818187925349 0 0 0
15747 0 5 1.7270172227650784 4.608608398455754 1.7188598356778866 0 0 0
15748 0 5 1.1788967023236703 5.1924138823482515 1.7345979276552081 0 0 0
15777 0 5 0.5762162017643963 5.72955132927078 1.7374427991451407 0 0 0
15779 0 5 1.75971807488919 5.766997652273751 1.727549207068455 0 0 0
18305 0 7 0.0 4.608672432791467 1.1521681081978667 0 0 0
18306 0 7 0.5760840540989334 5.1847564868904 1.1521681081978667 0 0 0
18307 0 7 1.1521681081978667 4.608672432791467 1.1521681081978667 0 0 0
18308 0 7 1.7282521622968001 5.1847564868904 1.1521681081978667 0 0 0
18337 0 7 0.0 5.760840540989333 1.1521681081978667 0 0 0
18339 0 7 1.1521681081978667 5.760840540989333 1.1521681081978667 0 0 0
15780 0 5 1.1763440785998838 6.321732407641734 1.719389647790726 0 0 0
18338 0 7 0.5760840540989334 6.336924595088267 1.1521681081978667 0 0 0
18340 0 7 1.7282521622968001 6.336924595088267 1.1521681081978667 0 0 0
15778 0 5 18.42880526289858 6.3361404166001885 1.7202272917062473 -1 0 0
16385 0 5 18.407045151811914 4.607376514043552 2.2846487791583945 -1 0 0
16453 0 5 1.1639326667993328 5.766290622813532 2.2949353203893494 0 0 0
16517 0 5 1.167163783481056 6.936319288438322 2.294776734587614 0 0 0
15751 0 5 4.036900445653813 4.613378495411897 1.7290850410494665 0 0 0
15749 0 5 2.8992552276316568 4.609184062219492 1.733868038368471 0 0 0
15750 0 5 2.3361401418459953 5.1570376917664404 1.7502788550991915 0 0 0
15752 0 5 3.4618638584758723 5.173483346550738 1.7396812183731467 0 0 0
15781 0 5 2.8742740044176878 5.728838675914843 1.7361926105519672 0 0 0
18309 0 7 2.3043362163957335 4.608672432791467 1.1521681081978667 0 0 0
18310 0 7 2.8804202704946666 5.1847564868904 1.1521681081978667 0 0 0
18311 0 7 3.4565043245936002 4.608672432791467 1.1521681081978667 0 0 0
18312 0 7 4.032588378692534 5.1847564868904 1.1521681081978667 0 0 0
18341 0 7 2.3043362163957335 5.760840540989333 1.1521681081978667 0 0 0
18343 0 7 3.4565043245936002 5.760840540989333 1.1521681081978667 0 0 0
15782 0 5 2.2758735377731565 6.332682932136997 1.7265007758586024 0 0 0
15784 0 5 3.4343377805781348 6.288121789465258 1.7792040410859205 0 0 0
18342 0 7 2.8804202704946666 6.336924595088267 1.1521681081978667 0 0 0
18344 0 7 4.032588378692534 6.336924595088267 1.1521681081978667 0 0 0
15783 0 5 4.032245070279799 5.764981732061255 1.7512989693831782 0 0 0
15813 0 5 2.8861777303055054 6.879748241031427 1.7284012290003619 0 0 0
16462 0 5 4.0313538458295195 6.328377249830852 2.3383639062332584 0 0 0
16525 0 5 3.420897540997 6.923009252147318 2.278241617400555 0 0 0
15815 0 5 3.9841389525360524 6.858958418516184 1.728357443705613 0 0 0
16397 0 5 3.4467088844153237 4.628516439012331 2.325337894051271 0 0 0
16457 0 5 2.2963417565874407 5.7398754098583575 2.2752630684423947 0 0 0
16461 0 5 3.4604083870901023 5.73014898635419 2.306778346096141 0 0 0
15754 0 5 4.602212670913889 5.183085936776078 1.6945542872533048 0 0 0
15756 0 5 5.735589029873365 5.1512848328018155 1.7293979679546008 0 0 0
15785 0 5 5.134522489225766 5.769560837048071 1.729795111996 0 0 0
18313 0 7 4.608672432791467 4.608672432791467 1.1521681081978667 0 0 0
18314 0 7 5.1847564868904 5.1847564868904 1.1521681081978667 0 0 0
18315 0 7 5.760840540989333 4.608672432791467 1.1521681081978667 0 0 0
18345 0 7 4.608672432791467 5.760840540989333 1.1521681081978667 0 0 0
18347 0 7 5.760840540989333 5.760840540989333 1.1521681081978667 0 0 0
15786 0 5 4.5965307930092445 6.318896807417807 1.7322289157068715 0 0 0
15788 0 5 5.756310561490612 6.363777372101588 1.7266973144173396 0 0 0
18346 0 7 5.1847564868904 6.336924595088267 1.1521681081978667 0 0 0
15817 0 5 5.157461407673848 6.945745358568807 1.7393161713215284 0 0 0
16466 0 5 5.191126523204979 6.332942931629987 2.319248954411539 0 0 0
16465 0 5 4.595769568888491 5.7547365064545515 2.3200867128067024 0 0 0
16402 0 5 5.185073249730116 5.192215058297053 2.3114732539620744 0 0 0
15755 0 5 6.332042176140859 4.619357366938742 1.705984928063055 0 0 0
15757 0 5 7.486654899865751 4.597727471836271 1.7380075077538104 0 0 0
15758 0 5 6.9075525582869854 5.111790472885017 1.7395317460457722 0 0 0
15760 0 5 8.051753479798865 5.200224723733524 1.709472459927619 0 0 0
15787 0 5 6.305023114873559 5.7746181136629255 1.7099954434865035 0 0 0
15789 0 5 7.504498373032356 5.778303273479069 1.7111702240552202 0 0 0
18316 0 7 6.336924595088267 5.1847564868904 1.1521681081978667 0 0 0
18317 0 7 6.9130086491872005 4.608672432791467 1.1521681081978667 0 0 0
18318 0 7 7.489092703286134 5.1847564868904 1.1521681081978667 0 0 0
18319 0 7 8.065176757385068 4.608672432791467 1.1521681081978667 0 0 0
18349 0 7 6.9130086491872005 5.760840540989333 1.1521681081978667 0 0 0
18351 0 7 8.065176757385068 5.760840540989333 1.1521681081978667 0 0 0
15790 0 5 6.915710493077597 6.319059112031468 1.7193471200879595 0 0 0
15792 0 5 8.091016799107939 6.354296495161978 1.7261556579107538 0 0 0
18348 0 7 6.336924595088267 6.336924595088267 1.1521681081978667 0 0 0
18350 0 7 7.489092703286134 6.336924595088267 1.1521681081978667 0 0 0
15819 0 5 6.32699525096776 6.921179903239747 1.7379965785197409 0 0 0
15821 0 5 7.49855441713193 6.874455142331567 1.7020192242337275 0 0 0
16409 0 5 6.882491424426952 4.5823842993192665 2.3139771110331306 0 0 0
16413 0 5 8.051615558974055 4.577681640003475 2.305825702068289 0 0 0
16473 0 5 6.919633885227826 5.700349479718608 2.296238433820725 0 0 0
16410 0 5 7.486267515986336 5.1944729145125725 2.30049024958706 0 0 0
15759 0 5 8.667777835898255 4.630151505789489 1.7294213721020948 0 0 0
16417 0 5 9.183305338368129 4.595390658069695 2.309176423873344 0 0 0
15762 0 5 9.193818310449053 5.194773315620238 1.7217937434537984 0 0 0
15791 0 5 8.672776158759346 5.714500796329717 1.743867235002819 0 0 0
15793 0 5 9.771769999746176 5.754995032533568 1.692208856724282 0 0 0
18320 0 7 8.641260811484 5.1847564868904 1.1521681081978667 0 0 0
18321 0 7 9.217344865582934 4.608672432791467 1.1521681081978667 0 0 0
18322 0 7 9.793428919681867 5.1847564868904 1.1521681081978667 0 0 0
18353 0 7 9.217344865582934 5.760840540989333 1.1521681081978667 0 0 0
15794 0 5 9.18159045905118 6.312381506136278 1.7363048958695892 0 0 0
18352 0 7 8.641260811484 6.336924595088267 1.1521681081978667 0 0 0
18354 0 7 9.793428919681867 6.336924595088267 1.1521681081978667 0 0 0
16481 0 5 9.199392104957207 5.763859202464011 2.296029826193779 0 0 0
16478 0 5 8.650238300683268 6.322225362598368 2.314835450885939 0 0 0
16414 0 5 8.643881147132756 5.176523520878511 2.3257921995201936 0 0 0
15825 0 5 9.792487284232536 6.8652382906523215 1.71835122846179 0 0 0
15823 0 5 8.625750186377426 6.9079003869642746 1.7276010395777641 0 0 0
16418 0 5 9.787284497839272 5.202128421639458 2.2929824403418744 0 0 0
16421 0 5 10.34393225857739 4.5871040181403115 2.2986084760967374 0 0 0
15765 0 5 12.084185133573719 4.564112763852643 1.725151828738501 0 0 0
15764 0 5 10.367966387697944 5.165836906299054 1.7072775401133264 0 0 0